<configuration xmlns:xsi="https://www.w3.org/2001/XMLSchema-instance" xsi:noNamespaceSchemaLocation="https://sumo.dlr.de/xsd/sumoConfiguration.xsd">

    <input>
        <net-file value="threebythreecityblock1.net.xml"/>
        <route-files value="threebythreecityblock1.rou.xml"/>
    </input>

    <output>
        <summary-output value="out/summary_out.xml" synonymes="summary" type="FILE"/>
    </output>
    
</configuration>